 Gaussian 09, Revision A.02+MNG,
 Gaussian 09:  EM64L-G09RevA.02+MNGFM5.0 11-Jun-2009

 ----------------------------
 # m06/6-31G opt freq=noraman
 ----------------------------

 ------
 titulo
 ------
 Symbolic Z-matrix:
 Charge =  0 Multiplicity = 1

 SCF Done:  E(RM06) =  -233.414742805     A.U. after   15 cycles
 SCF Done:  E(RM06) =  -233.428990097     A.U. after   14 cycles
 SCF Done:  E(RM06) =  -233.431205543     A.U. after   16 cycles
 SCF Done:  E(RM06) =  -233.431686521     A.U. after   16 cycles
 SCF Done:  E(RM06) =  -233.431697584     A.U. after   16 cycles
 SCF Done:  E(RM06) =  -233.431797009     A.U. after   12 cycles
 SCF Done:  E(RM06) =  -233.431808807     A.U. after   12 cycles
 SCF Done:  E(RM06) =  -233.431812158     A.U. after    8 cycles
 SCF Done:  E(RM06) =  -233.431813892     A.U. after    8 cycles
 SCF Done:  E(RM06) =  -233.431815002     A.U. after    8 cycles
 SCF Done:  E(RM06) =  -233.431815397     A.U. after    8 cycles
 SCF Done:  E(RM06) =  -233.431815612     A.U. after    7 cycles
 SCF Done:  E(RM06) =  -233.431816044     A.U. after    8 cycles
 SCF Done:  E(RM06) =  -233.431816307     A.U. after    7 cycles
 Optimization completed.
    -- Stationary point found.
 Normal termination of Gaussian 09 at Fri Jan  1 23:51:58 2016.

 ---------------------------------------------------------------
 #N Geom=AllCheck Guess=TCheck SCRF=Check GenChk RM06/6-31G Freq
 ---------------------------------------------------------------

 titulo
 ------
 Redundant internal coordinates taken from checkpoint file:
 /scratch/meanapan/Gau-23125.chk
 Charge =  0 Multiplicity = 1

                         Standard orientation:
 ---------------------------------------------------------------------
 Center     Atomic      Atomic             Coordinates (Angstroms)
 Number     Number       Type             X           Y           Z
 ---------------------------------------------------------------------
      1          6           0       -1.364568   -0.404183    0.181639
      2          8           0       -1.356281    1.016300   -0.074791
      3          6           0       -0.092639   -1.005770   -0.381685
      4          6           0        1.192444   -0.560750    0.327291
      5          6           0        1.679091    0.824744   -0.094008
      6          1           0       -2.155568    1.441559    0.280615
      7          1           0       -1.417360   -0.603940    1.265511
      8          1           0       -2.241280   -0.875590   -0.290643
      9          1           0       -0.193365   -2.099212   -0.313448
     10          1           0       -0.033309   -0.756304   -1.451595
     11          1           0        1.023157   -0.583274    1.416124
     12          1           0        1.981803   -1.300211    0.126564
     13          1           0        2.596732    1.103404    0.438331
     14          1           0        1.896266    0.842793   -1.170610
     15          1           0        0.907202    1.576132    0.098049
 ---------------------------------------------------------------------

 SCF Done:  E(RM06) =  -233.431816307     A.U. after    1 cycles

 The electronic state is 1-A.
 Alpha  occ. eigenvalues --  -19.21974 -10.29332 -10.23643 -10.23143 -10.21007
 Alpha  occ. eigenvalues --   -1.04026  -0.79786  -0.72403  -0.63669  -0.57427
 Alpha  occ. eigenvalues --   -0.52731  -0.47515  -0.43879  -0.42507  -0.38659
 Alpha  occ. eigenvalues --   -0.38227  -0.35480  -0.33270  -0.32710  -0.30881
 Alpha  occ. eigenvalues --   -0.27319
 Alpha virt. eigenvalues --    0.07965   0.12208   0.14167   0.15475   0.16496
 Alpha virt. eigenvalues --    0.18223   0.19165   0.19649   0.20906   0.21092
 Alpha virt. eigenvalues --    0.23265   0.23556   0.28265   0.29581   0.55070

 Mulliken atomic charges:
              1
     1  C   -0.058167
     2  O   -0.645000
     3  C   -0.296667
     4  C   -0.292472
     5  C   -0.474465
     6  H    0.380821
     7  H    0.141249
     8  H    0.147197
     9  H    0.150665
    10  H    0.166654
    11  H    0.141551
    12  H    0.150179
    13  H    0.144193
    14  H    0.147260
    15  H    0.197002
 Sum of Mulliken atomic charges =   0.00000

 Dipole moment (field-independent basis, Debye):
    X=             -1.6087    Y=             -0.8285    Z=              0.8897  Tot=              2.0163
 Quadrupole moment (field-independent basis, Debye-Ang):
   XX=            -28.0563   YY=            -32.6620   ZZ=            -33.0411
   XY=             -1.5372   XZ=             -1.8847   YZ=              1.3352

  Exact polarizability:  50.349   0.384  46.967  -0.779   0.113  42.045
 Approx polarizability:  57.063  -0.803  58.326  -1.302  -0.562  55.161

 ******    1 imaginary frequencies (negative Signs) ******

                     1                      2                      3
                     A                      A                      A
 Frequencies --   -11.4499               167.5974               258.3859
 Red. masses --     1.8832                 1.8423                 1.5217
 Frc consts  --     0.0001                 0.0305                 0.0599
 IR Inten    --     1.9954                11.8137                12.4760

                     4                      5                      6
                     A                      A                      A
 Frequencies --   284.5238               331.8767               362.1807
 Red. masses --     1.2284                 2.0133                 2.0908
 Frc consts  --     0.0586                 0.1307                 0.1616
 IR Inten    --   134.8610                29.0034                 1.6313

                     7                      8                      9
                     A                      A                      A
 Frequencies --   482.7668               780.9086               836.9173
 Red. masses --     1.7177                 1.4041                 2.0212
 Frc consts  --     0.2359                 0.5045                 0.8341
 IR Inten    --     8.3369                 6.3296                 4.9114

                    10                     11                     12
                     A                      A                      A
 Frequencies --   868.1714               969.8148               988.2214
 Red. masses --     1.6169                 2.4978                 1.2169
 Frc consts  --     0.7180                 1.3841                 0.7002
 IR Inten    --    16.0757                 0.9615                 1.2620

                    13                     14                     15
                     A                      A                      A
 Frequencies --  1044.0065              1106.0625              1147.7145
 Red. masses --     2.0858                 2.1117                 1.9849
 Frc consts  --     1.3395                 1.5221                 1.5405
 IR Inten    --    69.2322                 9.2539                18.7688

                    16                     17                     18
                     A                      A                      A
 Frequencies --  1174.1373              1221.7880              1257.1459
 Red. masses --     1.6410                 1.2459                 1.2446
 Frc consts  --     1.3329                 1.0957                 1.1589
 IR Inten    --     5.8191                33.1915                 2.4664

                    19                     20                     21
                     A                      A                      A
 Frequencies --  1310.8352              1319.9446              1388.8299
 Red. masses --     1.1665                 1.1599                 1.4714
 Frc consts  --     1.1810                 1.1907                 1.6721
 IR Inten    --    13.4113                 5.3870                 2.4287

                    22                     23                     24
                     A                      A                      A
 Frequencies --  1402.0805              1440.4706              1453.1628
 Red. masses --     1.4259                 1.2644                 1.3951
 Frc consts  --     1.6515                 1.5458                 1.7357
 IR Inten    --     0.8742                10.9337                 3.8916

                    25                     26                     27
                     A                      A                      A
 Frequencies --  1494.0678              1511.9298              1520.8118
 Red. masses --     1.0911                 1.0785                 1.0444
 Frc consts  --     1.4350                 1.4526                 1.4232
 IR Inten    --     6.5094                 3.4326                10.7311

                    28                     29                     30
                     A                      A                      A
 Frequencies --  1536.1240              1543.8836              2997.5318
 Red. masses --     1.0598                 1.0839                 1.0563
 Frc consts  --     1.4734                 1.5222                 5.5920
 IR Inten    --    12.2646                 3.8738                60.8195

                    31                     32                     33
                     A                      A                      A
 Frequencies --  3027.3685              3036.9541              3049.6876
 Red. masses --     1.0607                 1.0722                 1.0407
 Frc consts  --     5.7277                 5.8265                 5.7028
 IR Inten    --    32.1645                13.2549                39.0444

                    34                     35                     36
                     A                      A                      A
 Frequencies --  3051.9702              3077.8431              3099.3434
 Red. masses --     1.0941                 1.0975                 1.1014
 Frc consts  --     6.0045                 6.1256                 6.2336
 IR Inten    --    76.9259                43.5008                38.8491

                    37                     38                     39
                     A                      A                      A
 Frequencies --  3129.1869              3193.1869              3766.4303
 Red. masses --     1.0999                 1.0949                 1.0661
 Frc consts  --     6.3452                 6.5777                 8.9110
 IR Inten    --    51.0069                 9.4156                14.5863

 - Thermochemistry -
 -------------------
 Temperature   298.150 Kelvin.  Pressure   1.00000 Atm.
 Atom     1 has atomic number  6 and mass  12.00000

 Molecular mass:    74.07317 amu.
 Principal axes and moments of inertia in atomic units:
                           1         2         3
     Eigenvalues --   244.30677 507.49550 671.54542
           X            0.99925   0.03800  -0.00748
           Y           -0.03796   0.99926   0.00611
           Z            0.00770  -0.00582   0.99995
 This molecule is an asymmetric top.
 Rotational symmetry number  1.
 Rotational temperatures (Kelvin)      0.35453     0.17067     0.12898
 Rotational constants (GHZ):           7.38719     3.55617     2.68744
    1 imaginary frequencies ignored.
 Zero-point vibrational energy     362671.0 (Joules/Mol)
                                   86.68046 (Kcal/Mol)
 Warning -- explicit consideration of   6 degrees of freedom as
           vibrations may cause significant error
 Vibrational temperatures:    241.14   371.76   409.37   477.50   521.10
          (Kelvin)            694.59  1123.55  1204.14  1249.10  1395.35
                             1421.83  1502.09  1591.38  1651.30  1689.32
                             1757.88  1808.75  1886.00  1899.10  1998.21
                             2017.28  2072.51  2090.77  2149.63  2175.33
                             2188.11  2210.14  2221.30  4312.77  4355.70
                             4369.49  4387.81  4391.10  4428.32  4459.26
                             4502.20  4594.28  5419.05

 Zero-point correction=                           0.138134 (Hartree/Particle)
 Thermal correction to Energy=                    0.143949
 Thermal correction to Enthalpy=                  0.144893
 Thermal correction to Gibbs Free Energy=         0.109402
 Sum of electronic and zero-point Energies=           -233.293682
 Sum of electronic and thermal Energies=              -233.287867
 Sum of electronic and thermal Enthalpies=            -233.286923
 Sum of electronic and thermal Free Energies=         -233.322414

                     E (Thermal)             CV                S
                      KCal/Mol        Cal/Mol-Kelvin    Cal/Mol-Kelvin
 Total                   90.329             20.824             74.698
 Electronic               0.000              0.000              0.000
 Translational            0.889              2.981             38.823
 Rotational               0.889              2.981             25.924
 Vibrational             88.552             14.863              9.951
 Vibration     1          0.624              1.882              2.462
 Vibration     2          0.667              1.749              1.673
 Vibration     3          0.683              1.702              1.506
 Vibration     4          0.714              1.612              1.251
 Vibration     5          0.736              1.550              1.113
 Vibration     6          0.839              1.288              0.703

 Normal termination of Gaussian 09 at Fri Jan  1 23:52:29 2016.
